 Gaussian 09, Revision A.01,
 Gaussian 09:  EM64L-G09RevA.01  8-May-2009

 -------------------------------
 #p nmr b3lyp/cc-pvtz maxdisk=-1
 -------------------------------

 ------------------------
 Salicilato de Lamivudina
 ------------------------
 Symbolic Z-matrix:
 Charge =  0 Multiplicity = 2

                         Standard orientation:
 ---------------------------------------------------------------------
 Center     Atomic      Atomic             Coordinates (Angstroms)
 Number     Number       Type             X           Y           Z
 ---------------------------------------------------------------------
      1         16           0        2.150531   -0.513396    1.306411
      2          7           0       -2.928492   -0.464479    0.024568
      3          8           0        2.158648    2.333585    0.024274
      4          8           0       -1.790680   -2.413140   -0.281630
      5          7           0       -0.630995   -0.449714   -0.412821
      6          7           0       -4.106806    1.459675    0.434252
      7          8           0        1.561192   -0.322536   -1.251044
      8          6           0       -2.973567    0.884249    0.152411
      9          6           0       -0.642808    0.907839   -0.307344
     10          1           0        0.149778    1.375308   -0.442314
     11          6           0       -1.768712    1.600298   -0.013826
     12          1           0       -1.748168    2.525802    0.077081
     13          6           0       -1.786447   -1.205605   -0.241002
     14          6           0        0.621474   -1.215348   -0.715516
     15          1           0        0.424666   -1.912960   -1.374659
     16          6           0        1.191451   -1.860866    0.545749
     17          1           0        1.761982   -2.614575    0.326349
     18          1           0        0.482999   -2.161474    1.136366
     19          6           0        3.095772    1.408929   -0.508641
     20          1           0        3.949305    1.539100   -0.066270
     21          1           0        3.220542    1.598781   -1.451624
     22          6           0        2.686908   -0.032719   -0.356340
     23          1           0        3.443754   -0.599800   -0.615260
     24          1           0       -3.688503   -0.879982    0.112918
     25          1           0        2.302667    2.470436    0.805646
     26          1           0       -4.884976    1.004643    0.578802
     27          1           0       -4.136195    2.346755    0.422646
 ---------------------------------------------------------------------

 SCF Done:  E(UB3LYP) =  -1100.24372398     A.U. after   19 cycles

  1  S    Isotropic =   518.2894   Anisotropy =   377.1968

  2  N    Isotropic =   156.8024   Anisotropy =    80.0021

  3  O    Isotropic =   352.7138   Anisotropy =    14.0776

  4  O    Isotropic =    24.3824   Anisotropy =   453.6056

  5  N    Isotropic =   107.4228   Anisotropy =    74.7673

  6  N    Isotropic =   237.4946   Anisotropy =    78.6234

  7  O    Isotropic =   213.0960   Anisotropy =   145.2475

  8  C    Isotropic =    70.5223   Anisotropy =    86.1999

  9  C    Isotropic =    95.2817   Anisotropy =    85.2573

 10  H    Isotropic =    29.4240   Anisotropy =     8.6764

 11  C    Isotropic =   100.1274   Anisotropy =   102.4097

 12  H    Isotropic =    30.1962   Anisotropy =     5.8547

 13  C    Isotropic =    30.6488   Anisotropy =    76.3405

 14  C    Isotropic =    96.9030   Anisotropy =    53.3164

 15  H    Isotropic =    28.5269   Anisotropy =     5.1334

 16  C    Isotropic =   147.0682   Anisotropy =    52.2971

 17  H    Isotropic =    31.7417   Anisotropy =    11.3144

 18  H    Isotropic =    31.7558   Anisotropy =     9.6743

 19  C    Isotropic =   135.3597   Anisotropy =    59.0930

 20  H    Isotropic =    31.1774   Anisotropy =     9.0476

 21  H    Isotropic =    30.8411   Anisotropy =     8.1408

 22  C    Isotropic =    88.1825   Anisotropy =    72.8023

 23  H    Isotropic =    28.7002   Anisotropy =     7.2132

 24  H    Isotropic =    32.8796   Anisotropy =     5.8142

 25  H    Isotropic =    38.3321   Anisotropy =    24.4514

 26  H    Isotropic =    33.3608   Anisotropy =    14.2421

 27  H    Isotropic =    33.8727   Anisotropy =    13.9092

 The electronic state is 2-A.
 Alpha  occ. eigenvalues --  -88.88594 -19.14801 -19.11647 -19.08912 -14.34392
 Alpha  occ. eigenvalues --  -14.33707 -14.31196 -10.29924 -10.26187 -10.24954
 Alpha  occ. eigenvalues --  -10.22210 -10.21120 -10.18474 -10.14253 -10.12469
 Alpha  occ. eigenvalues --   -7.93803  -5.90246  -5.89946  -5.89280  -1.07292
 Alpha  occ. eigenvalues --   -1.06543  -1.05292  -0.99873  -0.94404  -0.92001
 Alpha  occ. eigenvalues --   -0.81813  -0.80643  -0.76708  -0.72085  -0.68327
 Alpha  occ. eigenvalues --   -0.67285  -0.63450  -0.62094  -0.59360  -0.57436
 Alpha  occ. eigenvalues --   -0.55005  -0.54093  -0.52830  -0.50964  -0.49714
 Alpha  occ. eigenvalues --   -0.49262  -0.47783  -0.46643  -0.45315  -0.44396
 Alpha  occ. eigenvalues --   -0.43611  -0.40601  -0.39324  -0.38913  -0.38462
 Alpha  occ. eigenvalues --   -0.35988  -0.35235  -0.33399  -0.32410  -0.30562
 Alpha  occ. eigenvalues --   -0.28831  -0.28590  -0.27195  -0.23989  -0.22103
 Alpha  occ. eigenvalues --   -0.07941
 Alpha virt. eigenvalues --    0.00689   0.02269   0.03091   0.04373   0.04967
 Alpha virt. eigenvalues --    0.06959   0.07423   0.08416   0.09641   0.09758
 Alpha virt. eigenvalues --    0.10713   0.10812   0.11869   0.12956   0.13053

  Beta  occ. eigenvalues --  -88.88592 -19.14801 -19.11646 -19.08916 -14.34203
  Beta  occ. eigenvalues --  -14.33503 -14.30972 -10.29937 -10.26196 -10.24951
  Beta  occ. eigenvalues --  -10.21531 -10.21120 -10.18458 -10.13478 -10.12669
  Beta  occ. eigenvalues --   -7.93800  -5.90242  -5.89945  -5.89273  -1.07252
  Beta  occ. eigenvalues --   -1.06445  -1.05247  -0.99306  -0.93960  -0.91486
  Beta  occ. eigenvalues --   -0.81795  -0.80514  -0.76146  -0.71961  -0.67408
  Beta  occ. eigenvalues --   -0.66936  -0.63373  -0.62052  -0.59123  -0.57319
  Beta  occ. eigenvalues --   -0.54951  -0.53845  -0.52690  -0.50714  -0.49416
  Beta  occ. eigenvalues --   -0.49176  -0.47693  -0.46237  -0.44804  -0.44160
  Beta  occ. eigenvalues --   -0.43491  -0.40450  -0.38849  -0.38064  -0.37754
  Beta  occ. eigenvalues --   -0.35760  -0.35050  -0.33221  -0.30946  -0.30362
  Beta  occ. eigenvalues --   -0.28533  -0.27640  -0.27078  -0.23927  -0.20968
  Beta virt. eigenvalues --    0.00548   0.01461   0.02894   0.03188   0.04403
  Beta virt. eigenvalues --    0.05014   0.06982   0.07437   0.08459   0.09688
  Beta virt. eigenvalues --    0.09820   0.10782   0.10885   0.11892   0.13095

 Mulliken atomic charges:
              1
     1  S   -0.124962
     2  N   -0.060586
     3  O   -0.259797
     4  O   -0.372801
     5  N   -0.052383
     6  N   -0.231717
     7  O   -0.322489
     8  C    0.159078
     9  C   -0.182251
    10  H    0.163281
    11  C   -0.264461
    12  H    0.142390
    13  C    0.224043
    14  C    0.119932
    15  H    0.164629
    16  C   -0.245434
    17  H    0.151769
    18  H    0.161326
    19  C   -0.086300
    20  H    0.131202
    21  H    0.148430
    22  C    0.027004
    23  H    0.159774
    24  H    0.082743
    25  H    0.124765
    26  H    0.107861
    27  H    0.134955
 Sum of Mulliken atomic charges =   0.00000

 Dipole moment (field-independent basis, Debye):
    X=             -0.4182    Y=              1.7049    Z=              0.9396  Tot=              1.9911
 Quadrupole moment (field-independent basis, Debye-Ang):
   XX=            -64.5477   YY=            -96.2757   ZZ=            -97.5263
   XY=             -7.3105   XZ=             -4.8424   YZ=              2.5219

 Normal termination of Gaussian 09 at Fri Feb 15 22:22:26 2013.
